81
Lattice="13.055152839 0.0 -0.0 6.260139543 10.842879751 0.0 -0.0 -0.0 17.941138384" Properties=species:S:1:pos:R:3:forces:R:3 energy=-331.2045147 stress="0.014879264676884744 -0.002209987309783618 -0.0016599355935377784 -0.002209987309783618 0.005694434609490465 0.002862093941746775 -0.0016599355935377784 0.002862093941746775 0.018731286932033107" free_energy=-331.22101627 pbc="T T T"
Ge      15.11230000       5.93808000      10.04581000       0.02291500       0.13256700      -0.27930500
Ge      15.12158000       8.33374000       1.95039000      -0.07020000       0.06073600       0.14526200
Ge       4.19749000       2.26470000       9.86164000       0.21866200       0.08668400       0.06143500
Ge      10.61129000       8.24127000       2.18037000      -0.07071900       0.30971300       0.17391700
Ge      14.83092000       6.22707000      16.16231000       0.11952800      -0.11668000       0.06329500
Ge      12.83364000       2.52032000      16.15667000       0.13797800      -0.20024700      -0.04271900
Ge      12.70137000       9.70827000      15.87261000       0.02360500       0.03488000       0.01021700
Ge       8.35771000       4.80371000       8.02139000       0.15900300      -0.00061000      -0.02240800
Ge       6.16655000       6.02719000      10.01323000       0.28652900       0.24341000      -0.21715100
Ge      13.05745000       9.50347000       9.96575000      -0.28606700      -0.08025400      -0.17061000
Ge      16.90797000       9.66853000      15.92014000       0.02745500       0.06927500       0.04489400
Ge       8.41486000       9.59657000       9.87787000      -0.14021700       0.05345400       0.27086700
Ge       8.37337000       4.80252000       1.90535000       0.19309400       0.11426800       0.09471500
Ge      12.86869000       4.88264000       2.19019000       0.03694700      -0.11613000      -0.02460100
Ge       8.40077000       9.69950000      15.67785000       0.13957600       0.07530400       0.26655400
Ge      10.73985000       1.27884000       7.85977000       0.07214800      -0.43841200       0.28454700
Ge       6.27208000       8.38241000       1.96638000       0.11372800       0.04762900       0.12876300
Ge      10.45310000       8.51075000       7.90791000       0.11496200      -0.18408200       0.01028200
Sb       6.43187000       6.23272000      15.91090000      -0.05883100      -0.31838900       0.22228300
Sb       1.97820000       1.29852000       8.02017000      -0.02029000       0.01672200      -0.09420800
Sb       6.29352000       8.44615000       7.85947000      -0.19559600      -0.06201400       0.08358600
Sb      13.03590000       2.47417000      10.10884000       0.09432000      -0.27126400       0.12453500
Sb       8.69521000       2.41530000       9.98662000      -0.08150500       0.11397000       0.31118300
Sb      17.12583000       9.58708000      10.03214000       0.19765900       0.01868100       0.09605600
Sb      14.77196000       8.42820000       7.67538000       0.53297600       0.14713700       0.66885300
Sb       6.27044000       1.07746000       2.02722000       0.09355800       0.28230800      -0.00900900
Sb      10.76042000       1.22175000       2.09086000       0.13676800      -0.11087100      -0.10840400
Sb      12.69816000       4.90809000       8.05513000      -0.00038400      -0.24632600       0.09630900
Sb       4.22596000       4.79960000       2.06598000      -0.30475600      -0.03516900      -0.03003400
Sb       4.17620000       4.86622000       7.98601000      -0.05489200      -0.38552700      -0.06010500
Sb      10.61274000       6.13201000      10.08390000       0.06186600      -0.28528900       0.15891900
Sb       8.68235000       2.37487000      16.06898000      -0.08064900       0.16273900       0.15292000
Sb      10.82325000       6.09827000      15.77600000       0.02131400       0.15270400       0.20345700
Sb       1.92150000       1.16051000       1.80911000       0.07376000       0.09493300       0.12207400
Sb       6.30885000       1.10800000       8.08403000       0.09387500      -0.03015200      -0.02192700
Sb       4.28286000       2.43029000      15.85055000      -0.11313800       0.16944900       0.18039400
Te       6.28808000       8.59076000      14.16282000      -0.17386100      -0.03959300       0.15808400
Te       2.23637000       3.66435000      11.55719000      -0.18874400      -0.30098700      -0.00114100
Te       4.36095000       4.93739000      14.00749000      -0.16043600      -0.16704500       0.39923800
Te      17.07320000       7.32501000      -0.00705000       0.06320700      -0.28952200       0.04200600
Te       8.40006000       9.54594000       3.61009000       0.10758400      -0.12871100       0.04502500
Te       8.52132000       7.13983000       6.41761000       0.02589600      -0.00032000      -0.20954200
Te      14.98249000       3.75522000       6.37008000       0.13271200      -0.20397300      -0.10714700
Te       4.13321000       7.12194000       6.23120000       0.06142800       0.33731800      -0.21263600
Te       4.17197000       0.10361000       0.03871000       0.11912400      -0.22411700      -0.02266700
Te      12.92551000       7.18996000      11.48489000       0.01815000       0.13813600       0.25162300
Te       4.34094000      -0.13774000       6.26194000      -0.13872500       0.26975800      -0.07650000
Te      10.58328000      10.69528000      11.21756000       0.11102800       0.22418400       0.06372100
Te       6.53923000       1.24808000      14.22163000      -0.14060300      -0.01081600       0.09158100
Te      10.75161000       5.97185000       3.80194000      -0.18039100      -0.03638700      -0.08235100
Te       6.50885000       3.43721000       6.44162000      -0.21295600       0.52772700      -0.26583400
Te       6.23833000       3.66421000      11.33116000       0.08227300      -0.50481900       0.30897300
Te       8.52791000       4.92807000      14.21260000      -0.11172100      -0.11716700       0.09325600
Te       8.50487000       7.13257000       0.18329000      -0.08627000       0.13675500      -0.44789000
Te       6.36571000       5.94369000       3.73821000       0.00153700       0.09332300      -0.07495500
Te       8.60478000       2.34494000       3.83323000      -0.09528600       0.07306300      -0.07250300
Te      15.00753000       3.62089000      17.91415000       0.26216100       0.19674600       0.11400900
Te      12.95163000       4.77369000      14.16461000      -0.18868300       0.21155000       0.11606900
Te       6.42518000      10.67040000      11.70053000      -0.30557400       0.37516700      -0.66043200
Te      12.55051000       7.25193000       6.28169000      -0.16698100       0.07958700      -0.48795500
Te      17.14217000       9.54947000       3.75827000       0.02736700       0.01800600      -0.09504900
Te      12.84372000       7.27433000      -0.02911000      -0.00120300      -0.12530800       0.06836600
Te      14.97021000      10.83343000       0.17722000      -0.14708100       0.05433400      -0.35402400
Te       4.10208000       7.06231000      11.56319000      -0.01055100       0.28898500       0.13480500
Te      10.66999000       3.75983000      11.92659000       0.00202200      -0.10267400      -0.18102500
Te      10.54807000       3.62976000       6.54410000       0.01868500       0.27114700      -0.39749700
Te      12.89168000       2.42480000       3.89480000       0.17493000       0.15426000      -0.26453400
Te       8.71851000       0.12499000       6.28189000      -0.10738200      -0.17314200      -0.21799200
Te       2.13160000       1.26991000      14.29955000      -0.17267200      -0.08830300      -0.14060700
Te       8.59063000      -0.06377000      11.61341000       0.12814100       0.08179100       0.10864300
Te      14.97683000       6.06040000       3.78210000       0.20666200      -0.14410400      -0.10729100
Te      10.83543000       3.61898000       0.05047000      -0.15765200       0.21173900      -0.00698800
Te      10.69626000       8.65809000      14.15522000      -0.11940600      -0.36187900       0.18386500
Te       8.28218000       7.34078000      11.49916000      -0.05680700      -0.13014200       0.01167900
Te       6.42933000       3.62063000       0.15538000      -0.17981700       0.08743700      -0.15160800
Te      12.67379000       9.60179000       3.85242000       0.04732400      -0.26726300      -0.06757600
Te       6.21563000      10.77564000      17.89662000      -0.06602400      -0.00355900       0.20296700
Te       4.18629000       2.33014000       3.78841000      -0.01978800       0.12437900      -0.17165800
Te      -0.04213000       0.03868000       6.25796000      -0.14465300       0.11403900      -0.09313900
Te      10.71805000       1.26911000      14.35383000       0.18282000      -0.09330400      -0.19466600
Te      14.83423000       8.51605000      14.40271000       0.06523400      -0.06144300      -0.12353900
81
Lattice="12.573101103 0.0 -0.0 5.932978447 10.27622011 0.0 -0.0 -0.0 16.875710379" Properties=species:S:1:pos:R:3:forces:R:3 energy=-330.65060295 stress="-0.01733654681974498 -0.005213476399268152 -0.0038249278640329044 -0.005213476399268152 -0.03609906626344401 0.007450920107696531 -0.0038249278640329044 0.007450920107696531 -0.020784805849539956" free_energy=-330.6655993 pbc="T T T"
Ge      16.50152000       9.19099000       9.15062000      -0.04502700       0.01189900       0.27581100
Ge      12.18197000       9.38272000      14.91399000      -0.01579900      -0.33941200      -0.00939300
Ge       3.89869000       2.45080000      14.96231000       0.09054800      -0.18666900       0.11087300
Ge      12.57746000       4.61418000       7.57359000      -0.27332400       0.15597800      -0.00109700
Ge       5.98702000       5.81431000       9.10460000       0.07078300      -0.28279800       0.31474900
Ge      12.28327000       4.73033000       2.10944000       0.00408500      -0.02160000      -0.46059300
Ge       7.92525000       9.22311000       9.27736000       0.16826400      -0.14522800      -0.03005600
Ge      16.29695000       9.09104000      14.90346000       0.15377300       0.09226700       0.22186300
Ge       3.87724000       4.43238000       7.37500000       0.35527300       0.21006400       0.06129900
Ge       1.99338000       1.07624000       7.32048000       0.03051800       0.14525200       0.51293800
Ge      12.40606000       2.41032000      14.84089000       0.31099600      -0.16807800       0.22028900
Ge      14.26962000       8.02963000       2.05088000       0.11596100       0.02637300      -0.06030300
Ge      10.20711000       8.07109000       1.98428000       0.07669800      -0.05023500      -0.06542600
Ge      14.70345000       5.62150000       9.17802000      -0.13500600       0.08388000       0.03987700
Ge       3.72516000       4.72299000       1.90627000       0.26259600      -0.15436300      -0.24675000
Ge      14.45163000       5.70545000      15.17731000      -0.13341000       0.06330300      -0.11511200
Ge      10.53043000       1.16588000       7.54747000      -0.17571300      -0.00997000       0.35842700
Ge       5.85398000       7.91276000       7.42786000       0.17922500       0.14472200       0.29873200
Sb      14.43828000       7.95618000       7.38919000       0.28745700       0.06463100       0.08010100
Sb      12.56454000       2.30101000       9.35326000      -0.04663700       0.13597200      -0.02242400
Sb       5.83815000       8.01766000       1.86944000       0.18928400      -0.20655600      -0.09494100
Sb       3.74554000       2.25743000       9.33318000       0.43333500       0.15506300       0.03344300
Sb      10.34971000       0.97297000       1.67070000       0.02474900       0.30345900       0.29225800
Sb       8.31806000       2.40330000      15.00866000      -0.40928200      -0.05696000       0.05219000
Sb       6.20320000       5.75555000      14.96336000      -0.33681800      -0.13053700       0.37803700
Sb      10.43580000       5.84839000      15.06932000      -0.07242400       0.05983900       0.07072200
Sb      12.51210000       9.05726000       9.23604000      -0.30015500       0.34291500       0.19378500
Sb      10.37961000       5.57555000       9.25912000       0.01494400       0.53992500       0.03020600
Sb      10.09302000       8.15375000       7.58049000      -0.08487200      -0.19412500       0.20757000
Sb       8.20781000       2.20979000       9.63302000       0.03150900       0.17894300      -0.31443500
Sb       6.02282000       1.36201000       7.68397000       0.16136700      -0.59913900       0.09714400
Sb       6.20060000       1.19126000       1.99405000       0.13942600      -0.04038700      -0.22032400
Sb       8.22830000       4.46829000       1.75265000       0.00177200       0.26747900      -0.05915200
Sb       8.09044000       9.31184000      14.94594000      -0.03420900      -0.34609900       0.08792300
Sb       1.87814000       1.26157000       2.00381000       0.00536500      -0.29060100      -0.32788400
Sb       8.07574000       4.50081000       7.58651000       0.35072800      -0.13760500       0.10874300
Te       5.89481000       8.09261000      13.34829000       0.02042600       0.08999600      -0.25838500
Te      14.50947000       3.65925000      11.15405000      -0.14240200      -0.07930500      -0.25110200
Te       3.91918000       4.72433000      13.32910000       0.04078300       0.00759000       0.17749700
Te       3.85627000       6.89346000      16.79737000      -0.02319800      -0.01809200       0.26787300
Te       7.99351000       9.03625000       3.59505000       0.25248100       0.11651600      -0.00768600
Te       8.01781000       6.87665000       5.99468000      -0.07462700       0.12186500      -0.37794400
Te      14.39970000       3.43098000       5.90037000       0.27781000      -0.18279600       0.07907800
Te       4.09664000       6.67006000       5.78059000      -0.03920700       0.00877800       0.01491400
Te       4.21122000       0.03004000       0.04129000      -0.12475800       0.15917500      -0.04784200
Te      12.62467000       6.72812000      10.82231000      -0.31112100      -0.00313500       0.02217600
Te       4.03123000       0.09778000       5.75096000       0.05313000       0.02126300       0.03411500
Te      10.01658000      10.13950000      10.87731000      -0.21404100       0.10822000      -0.10344500
Te       6.03018000       1.36166000      13.33701000       0.27035100      -0.01256000       0.07252800
Te      10.19178000       5.74142000       3.61475000       0.00517800       0.07638100      -0.02337900
Te       6.13315000       3.41390000       5.76978000      -0.27216200       0.17080900      -0.04967400
Te       5.91866000       3.62608000      10.90457000       0.27188600      -0.16258600      -0.08513800
Te       8.30699000       4.74597000      13.17838000      -0.06487600      -0.13225700       0.02542800
Te       8.24185000       6.94489000       0.02397000      -0.23856500       0.04361500       0.12051500
Te       6.10405000       5.50806000       3.55554000      -0.11294800       0.55617500      -0.32143200
Te       8.48608000       2.23410000       3.60686000      -0.30842800       0.09623800       0.08851400
Te      14.39428000       3.54236000       0.14206000       0.06323600      -0.03588500      -0.38726800
Te      12.48174000       4.70765000      13.26058000      -0.05435900      -0.07906100       0.49814300
Te      18.41593000      10.17135000      10.88659000       0.12794000       0.03154800      -0.12800900
Te      12.21837000       6.84510000       5.92249000       0.03349500      -0.13344700       0.00044500
Te      16.34302000       9.07154000       3.70081000      -0.00662200       0.09994300      -0.27701200
Te      12.48170000       7.03220000       0.00077000      -0.39475200      -0.13882000       0.14113200
Te      14.22523000      10.21389000      16.79392000      -0.08364600      -0.07899900       0.11594800
Te       4.01189000       6.92740000      10.64494000      -0.09849000      -0.16813100       0.13996600
Te      10.46361000       3.44457000      11.14686000      -0.13698700      -0.24223300       0.05098600
Te      10.51723000       3.45748000       6.13588000      -0.24361500       0.21552800      -0.10897000
Te      12.21509000       2.34730000       3.58580000       0.34035100      -0.06011900       0.00355200
Te       8.38783000       0.27763000       6.07543000       0.03899700      -0.48552000      -0.10273600
Te       1.93170000       1.28705000      13.23099000       0.02109000       0.29201300       0.03755000
Te      14.45924000      10.06008000      11.17177000       0.03525800       0.11651100      -0.25230300
Te      14.33540000       5.74296000       3.62199000       0.18367500       0.13690300      -0.03082000
Te      10.55670000       3.49747000       0.04103000      -0.18418200      -0.16620900      -0.20608800
Te      10.25914000       8.15802000      13.30159000       0.01814700      -0.15069500      -0.23479000
Te       8.01626000       6.86305000      10.68813000      -0.03991100       0.04992200      -0.06926300
Te       5.95375000       3.39460000       0.03145000       0.08434000       0.39834400      -0.22665800
Te      12.22444000       9.15319000       3.67435000       0.09880000      -0.32572100       0.02924500
Te      -0.06439000       0.10146000      16.76183000       0.06943800      -0.21618000      -0.10487000
Te       4.01604000       2.41315000       3.64576000      -0.03708500       0.15761300      -0.21193500
Te       5.89332000      10.25349000       6.01988000      -0.43869400      -0.01734600      -0.37338300
Te      10.42339000       1.16694000      13.30264000       0.08171000      -0.11279100       0.19596200
Te      14.34155000       7.87871000      13.38408000      -0.13982300       0.30534100       0.10547400
81
Lattice="12.555024701 0.0 -0.0 6.214957205 10.764621646 0.0 -0.0 -0.0 18.065545456" Properties=species:S:1:pos:R:3:forces:R:3 energy=-327.27534637 stress="0.0023654008870181114 -0.0007210316172402857 0.0005448088485800978 -0.0007210316172402857 -0.0005438726222112154 0.0029821431282740134 0.0005448088485800978 0.0029821431282740134 0.011255737829325839" free_energy=-327.28979697 pbc="T T T"
Ge      12.49129000       4.64759000       1.71079000      -0.13276500       0.60031200       0.38911700
Ge      12.57108000       4.40053000       7.91244000       0.04017900       0.48762100      -0.20148900
Ge       4.20332000       2.22103000       9.77118000       0.36378600       0.34432700       0.62530400
Ge       8.07865000       9.71137000      10.10015000       0.37871800      -0.06639000      -0.13377100
Ge       4.20472000       5.02728000       2.22783000      -0.11405700      -0.14117600      -0.03745900
Ge      10.73176000       1.18162000       8.23328000      -0.17886800      -0.01140700      -0.47855700
Ge      16.76159000       9.64514000       9.71382000      -0.34311700      -0.29639800       0.82804600
Ge       2.18354000       1.32092000       8.31117000       0.03768600      -0.13799400      -0.52834500
Ge       8.57613000       4.55291000       7.83341000      -0.17722700       0.12139700       0.19470000
Ge       6.41236000       1.04576000       7.73345000       0.06307200       0.32017500       0.13302400
Ge      14.43034000       8.60821000       8.23693000      -0.11024200      -0.32361200      -0.08616400
Ge       8.59709000       2.17421000      15.82827000      -0.35365300       0.13710200      -0.50079700
Ge       6.45161000       6.03854000      16.16185000      -0.13874200       0.11650200      -0.35296700
Ge      16.58733000       9.79921000      16.10526000      -0.01557000      -0.92585500      -0.46285000
Ge       6.16078000       6.19716000      10.02307000       0.03683400       0.08775500       0.85247000
Ge      12.35868000       2.52801000      16.28229000       0.39630000      -0.24382900      -0.30719300
Ge      10.61983000       5.68506000      16.11182000      -0.19483000       0.47818600      -0.87959300
Ge      10.63070000       5.91964000       9.71539000      -0.13813400       0.26258100       0.17627600
Sb      10.41230000       8.58308000       7.95073000      -0.53660100      -0.64728900      -0.28092700
Sb      12.42995000       2.60486000      10.14096000       0.45000200      -0.37746100      -0.05517000
Sb      14.51351000       5.93281000      16.01851000      -0.46162600       0.05988900      -0.50425000
Sb       6.41077000       1.37678000       1.97067000      -0.59952300      -0.34355100       0.21337000
Sb       1.91294000       1.30941000       1.73229000       0.29019700       0.21778600       0.65042100
Sb       4.34187000       2.66085000      16.26902000      -0.29384500       0.01478600      -0.39180000
Sb      12.24152000       9.78015000      10.00184000       0.39693800      -0.34759400       0.31331400
Sb      10.17262000       8.48824000       2.06556000       0.43054700      -0.21493800       0.48644300
Sb       8.45844000       4.72306000       2.20657000      -0.00816000       0.51647800       0.53845800
Sb      14.78948000       8.62881000       1.91602000      -0.71651300      -0.49348000       0.06195600
Sb      12.38107000       9.72791000      15.95592000      -0.31369300      -0.70099100      -0.23645300
Sb      14.62265000       6.12575000       9.66057000       0.29892600      -0.42048700       0.93804500
Sb       8.33937000       9.79370000      15.91121000       0.19702100      -0.76073500      -0.09881400
Sb      10.55066000       1.40781000       1.85771000       0.24060300      -0.40371500       0.21553500
Sb       4.44013000       4.94971000       8.08411000       0.20380000      -0.40862900      -0.09292500
Sb       8.05263000       2.48331000      10.07523000       0.45449200      -0.26279600       0.28146500
Sb       6.33941000       8.14713000       7.91136000      -0.10992000       0.73872900       0.13337400
Sb       6.08273000       8.26113000       1.95927000       0.32630500       0.16785400       0.20699600
Te       6.15375000       8.49778000      14.59174000      -0.28997900      -0.62142000      -0.42420700
Te       2.48776000       3.47244000      11.47732000      -0.80714400       0.49375700      -0.26918400
Te       3.92099000       4.74372000      14.04322000       0.44485200       0.16943800       0.39417400
Te      16.47015000       7.09478000      17.87467000       0.70803000       0.45941300       0.30217900
Te       8.04278000       9.75370000       3.87118000       0.27217000      -0.59269500      -0.90485400
Te       8.43938000       6.89138000       6.30428000       0.36553000       0.37741400      -0.37464300
Te       2.38574000       3.53826000       6.58756000      -0.88041100      -0.09997500      -0.04162700
Te      16.37757000       7.32170000       6.58190000       0.39513000      -0.02576900      -0.36677800
Te       4.03400000       0.21222000      17.94670000       0.63596200      -0.29583600       0.66875200
Te      12.60092000       6.84972000      11.51252000      -0.52629800       0.55396600      -0.14972100
Te       4.03184000       0.25788000       6.40450000       0.30792700      -0.18343100      -0.05344900
Te       3.99335000       0.24098000      11.73328000      -0.25070400      -0.36397700      -0.37399200
Te       5.94778000       1.28466000      14.16337000       0.64108300       0.18835200       0.47843200
Te      10.82550000       5.77991000       3.80032000      -0.89533700       0.46569600      -0.31864300
Te       6.47437000       3.59197000       6.26803000      -0.07816100      -0.52412300       0.22940300
Te       6.12659000       3.94533000      11.59889000       0.31355000      -0.69951800      -0.23341900
Te       8.44955000       4.54606000      14.48526000      -0.36294300       0.62139500      -0.23001100
Te       8.28345000       7.16595000      -0.07566000      -0.17526600      -0.11061000       0.22584000
Te       6.27284000       5.79460000       4.02993000       0.01526600       0.71385900      -0.55115400
Te       8.52331000       2.19692000       3.93295000      -0.55247400       0.39024000      -0.42064600
Te      14.60486000       3.84962000       0.13032000       0.20897800      -0.92268300      -0.20096700
Te      12.49191000       4.40581000      14.21977000      -0.13944500       0.68980500       0.62716300
Te      12.30476000      -0.01432000      11.61021000       0.13983700      -0.17656900      -0.28013100
Te      12.46738000       6.90163000       6.64923000       0.38703800       0.65205300       0.09616700
Te      16.58165000       9.87560000       3.82037000       0.60986500      -0.60577500      -0.33109300
Te      12.32695000       7.02452000      17.89151000       0.26369000       0.43694600       0.54199600
Te       8.26946000       0.04402000      17.81791000       0.13356300       0.16351500       0.94630300
Te       4.19106000       7.01243000      11.94288000       0.04332700       0.66751600      -1.26079900
Te      10.35436000       3.92913000      11.60826000      -0.56634300      -0.54591800       0.19725100
Te      10.45444000       3.37858000       6.26673000       0.49095200      -0.11922100       0.47869600
Te      12.67638000       2.51889000       3.79484000      -0.33641700      -0.11145600      -0.67144300
Te      14.74956000      10.55108000       6.37105000      -0.43999800       0.38646800       0.35766600
Te       1.94294000       1.47204000      14.48570000       0.22125700       0.05561300       0.09693500
Te      14.39184000      10.60703000      11.71899000       0.62612200       0.53083300      -0.33407900
Te      14.65158000       6.23679000       3.61971000      -0.13381400      -0.50511600      -0.12561800
Te      10.11753000       3.63064000      -0.04984000       0.66393300      -0.11138000       0.13426600
Te      10.42991000       8.06011000      14.40792000      -0.36064000       0.28898500       0.00344300
Te       8.46370000       7.22696000      11.20162000      -0.11867500      -0.11766300       0.26565000
Te       6.52392000       3.67656000       0.12798000      -0.61786600      -0.16893500      -0.16745900
Te      12.36851000       9.26311000       3.77774000       0.15597900       0.72669400      -0.17937400
Te      18.63803000      10.59021000      17.89626000       0.03350500       0.23612900       0.76557100
Te       3.99209000       2.65688000       3.69201000       0.29843000      -0.66722400      -0.53754100
Te       0.28624000       0.12344000       6.66668000      -0.61932700       0.01350700       0.07163800
Te      10.56720000       0.96556000      14.12635000      -0.46161600       0.53820200       0.48473400
Te      14.29717000       8.23319000      14.31759000       0.56855900       0.60634100      -0.17421900
81
Lattice="12.482144974 0.0 -0.0 6.141143487 10.636772536 0.0 -0.0 -0.0 17.696130529" Properties=species:S:1:pos:R:3:forces:R:3 energy=-330.47794861 stress="-0.006436593735121864 -0.0011681920555459402 -0.0013528283785078186 -0.0011681920555459402 -0.009884334719659393 0.00048536471566518565 -0.0013528283785078186 0.00048536471566518565 0.004297272791661498" free_energy=-330.49348392 pbc="T T T"
Ge       8.20582000       9.57878000       9.99838000       0.38353500      -0.34291700      -0.20411800
Ge      12.18335000       4.66135000       2.05582000       0.59105800       0.12502200       0.04965400
Ge      16.62881000       9.50613000      15.49726000      -0.19085100      -0.03161100       0.31973700
Ge      10.44002000       8.22855000       1.84567000      -0.20319400       0.11908200       0.13393900
Ge      10.33245000       6.01180000       9.97381000       0.11866700      -0.55790100       0.45858500
Ge       8.20786000       2.40984000       9.98635000       0.10483900       0.26108400      -0.24837000
Ge      10.35760000       5.95774000      15.52430000      -0.04297400      -0.26682400      -0.03390700
Ge       1.98494000       1.03047000       7.81739000       0.21801200       0.24381800      -0.41127900
Ge       4.23505000       2.45197000       9.67101000      -0.01188700      -0.30620100       0.56473600
Ge      14.34418000       6.00543000      10.02021000       0.34818500      -0.35088900      -0.10005000
Ge       4.05927000       4.69782000       7.75495000       0.09899100       0.27750400       0.08590600
Ge       3.88816000       4.73529000       2.06448000       0.24796000      -0.12009700      -0.06644000
Ge       6.50599000       1.28181000       7.86277000      -0.60664400      -0.19220100      -0.25634800
Ge      12.33374000       2.56906000      15.54797000       0.23317800      -0.00098500       0.01014100
Ge       6.28283000       8.51600000       7.75570000      -0.30146600      -0.09674300       0.10363900
Ge      14.29691000       6.04144000      15.53345000       0.15298100      -0.41766300       0.26577100
Ge       2.09572000       1.13608000       1.72364000      -0.07784000       0.14045900       0.11985600
Ge       4.00452000       2.35952000      15.68023000       0.06764000      -0.08955800       0.38880300
Sb       8.35208000       2.36590000      15.50848000      -0.19364000      -0.00735100       0.66915400
Sb      14.54698000       8.19926000       1.78291000      -0.35265700      -0.01406800       0.18417100
Sb      10.23507000       1.19361000       1.98427000       0.51278600       0.22319000       0.02811100
Sb      10.23906000       1.21680000       8.04742000       0.50696800       0.10977400      -0.44354700
Sb       6.22291000       8.20444000       2.07940000      -0.01222000      -0.02811000      -0.27869300
Sb       8.26875000       4.64982000       2.06969000       0.01876200       0.20871400      -0.30002300
Sb      12.56392000       9.81098000       9.79370000      -0.99614200      -0.93205200      -0.71799700
Sb      12.44808000       9.32893000      15.56393000      -0.51318800       0.09289900       0.52807100
Sb       8.30483000       4.91277000       8.08702000       0.05321800      -0.52000400      -0.47888200